8
Lattice="2.50222553729955 -4.333981762599156 0.0 2.50222553729955 4.333981762599156 0.0 0.0 0.0 10.0" Properties=species:S:1:pos:R:3 REF_energy=-70.02525621459452 label=pristine defect_type=pristine distortion_type=none distortion_mag=0.0 config_type=pristine_none_+0.000 pbc="T T T"
B        0.00000000       0.00000000       0.00000000
N        1.25111277       0.72233029       0.00000000
B        1.25111277       2.16699088       0.00000000
N        2.50222554       2.88932118       0.00000000
B        1.25111277      -2.16699088       0.00000000
N        2.50222554      -1.44466059       0.00000000
B        2.50222554       0.00000000       0.00000000
N        3.75333831       0.72233029       0.00000000
7
Lattice="2.50222553729955 -4.333981762599156 0.0 2.50222553729955 4.333981762599156 0.0 0.0 0.0 10.0" Properties=species:S:1:pos:R:3 REF_energy=-55.552461028019664 label=undistorted defect_type=V_Bx1 distortion_type=undistorted distortion_mag=0.0 config_type=V_Bx1_undistorted_+0.000 pbc="T T T"
N        1.23478342       0.71290254       0.00000000
B        1.24823191       2.16865415       0.00000000
N        2.50222554       2.90817668       0.00000000
B        1.25399363      -2.16532761       0.00000000
N        2.50222554      -1.44466059       0.00000000
B        2.50222554      -0.00332653       0.00000000
N        3.76966765       0.71290254       0.00000000
7
Lattice="2.50222553729955 -4.333981762599156 0.0 2.50222553729955 4.333981762599156 0.0 0.0 0.0 10.0" Properties=species:S:1:pos:R:3 REF_energy=-55.5524563103304 label=bond_-0.100 defect_type=V_Bx1 distortion_type=bond_distortion distortion_mag=-0.1 config_type=V_Bx1_bond_distortion_-0.100 pbc="T T T"
N        0.87677647       0.71347838       0.00000000
B        0.89123126       2.16923878       0.00000000
N        2.14553616       2.90847125       0.00000000
B        0.89682923      -2.16604043       0.00000000
N        2.14476681      -1.44466660       0.00000000
B        2.14388315      -0.00321749       0.00000000
N        3.41210461       0.71205729       0.00000000
7
Lattice="2.50222553729955 -4.333981762599156 0.0 2.50222553729955 4.333981762599156 0.0 0.0 0.0 10.0" Properties=species:S:1:pos:R:3 REF_energy=-55.55245499405065 label=bond_+0.100 defect_type=V_Bx1 distortion_type=bond_distortion distortion_mag=0.1 config_type=V_Bx1_bond_distortion_+0.100 pbc="T T T"
N        1.59195275       0.71206553       0.00000000
B        1.60525202       2.16781177       0.00000000
N        2.85908049       2.90794272       0.00000000
B        1.61135158      -2.16469317       0.00000000
N        2.85987098      -1.44442647       0.00000000
B        2.86027914      -0.00285649       0.00000000
N        4.12779182       0.71347729       0.00000000
7
Lattice="2.50222553729955 -4.333981762599156 0.0 2.50222553729955 4.333981762599156 0.0 0.0 0.0 10.0" Properties=species:S:1:pos:R:3 REF_energy=-55.55246049749672 label=rattle_0 defect_type=V_Bx1 distortion_type=rattle distortion_mag=0.1 config_type=V_Bx1_rattle_+0.100 pbc="T T T"
N        1.16459996       0.71728555       0.00241413
B        1.17844137       2.17317484       0.00227181
N        2.43235825       2.91312169       0.00271412
B        1.18400663      -2.16081016       0.00267722
N        2.43233754      -1.44009164       0.00201200
B        2.43233064       0.00135313       0.00280355
N        3.70002921       0.71732987       0.00359220
7
Lattice="2.50222553729955 -4.333981762599156 0.0 2.50222553729955 4.333981762599156 0.0 0.0 0.0 10.0" Properties=species:S:1:pos:R:3 REF_energy=-55.55245714774655 label=rattle_1 defect_type=V_Bx1 distortion_type=rattle distortion_mag=0.1 config_type=V_Bx1_rattle_+0.100 pbc="T T T"
N        1.28710200       0.67482520      -0.03735683
B        1.30087184       2.13063787      -0.03637460
N        2.55494166       2.87004746      -0.03710104
B        1.30662629      -2.20370604      -0.03693230
N        2.55481961      -1.48266695      -0.03563102
B        2.55473055      -0.04124264      -0.03632354
N        3.82264011       0.67444990      -0.03654814
